TITLE = tetrahedron_mesh_in_3Dplate
VARIABLES = X, Y, Z
ZONE N=10890,E=67597,F=FEPOINT, ET= tetrahedron
0.497389 0.639991 0.380008
0.469965 0.64508 0.383312
0.492115 0.666216 0.372759
0.479917 0.634469 0.366526
0.557593 0.633217 0.681594
0.577752 0.631256 0.710779
0.547578 0.624294 0.700266
0.56394 0.610632 0.694649
0.665011 0.456395 0.234718
0.690267 0.463963 0.258022
0.676196 0.445776 0.270711
0.685769 0.439001 0.244437
0.421957 0.557308 0.222284
0.4133 0.555904 0.247237
0.449991 0.576432 0.243996
0.424818 0.580646 0.26002
0.167617 0.592452 0.441057
0.176636 0.627964 0.460492
0.170161 0.617031 0.496784
0.203951 0.586286 0.475459
0.743778 0.69584 0.342778
0.768681 0.701818 0.402122
0.730481 0.726378 0.365346
0.71795 0.694683 0.364987
0.464461 0.249437 0.315567
0.489221 0.260707 0.309014
0.499786 0.226742 0.2813
0.468539 0.272933 0.286245
0.213 0.660245 0.37978
0.18987 0.643861 0.425011
0.186145 0.610752 0.3917
0.227943 0.644073 0.420262
0.723949 0.696338 0.398498
0.515736 0.708735 0.382648
0.543537 0.730016 0.386355
0.511438 0.735841 0.381194
0.517504 0.718307 0.404209
0.464615 0.382589 0.244456
0.465076 0.407143 0.228986
0.486163 0.389017 0.240382
0.469032 0.38597 0.21951
0.580963 0.525647 0.800878
0.560309 0.491883 0.816169
0.548843 0.519453 0.818745
0.562057 0.510366 0.800472
0.74302 0.433749 0.588737
0.773277 0.448022 0.574277
0.758414 0.444819 0.606943
0.768774 0.429299 0.594469
0.496806 0.795045 0.311749
0.47456 0.761468 0.324661
0.458276 0.775536 0.288248
0.478926 0.749674 0.299551
0.440963 0.623099 0.822275
0.464557 0.626279 0.789978
0.486478 0.642682 0.81931
0.461685 0.596101 0.796004
0.470678 0.60031 0.359749
0.4664 0.614609 0.342441
0.454478 0.600059 0.329461
0.44966 0.611975 0.354328
0.794966 0.409267 0.334886
0.766503 0.366365 0.316649
0.789241 0.36719 0.354393
0.754281 0.383451 0.349368
0.157885 0.573368 0.491357
0.18898 0.569391 0.498289
0.199561 0.599076 0.496576
0.791489 0.421618 0.677174
0.778049 0.422864 0.640232
0.747589 0.409359 0.667513
0.761458 0.433131 0.662046
0.622166 0.172169 0.489896
0.606942 0.213106 0.520437
0.630622 0.222693 0.507686
0.617156 0.20532 0.489464
0.623963 0.644713 0.337317
0.620132 0.664529 0.36513
0.640809 0.664558 0.354198
0.626407 0.670535 0.333034
0.403062 0.314477 0.505039
0.422904 0.299587 0.518557
0.413602 0.318224 0.529466
0.406123 0.294227 0.507762
0.157572 0.440799 0.458305
0.205216 0.435633 0.44052
0.164231 0.451089 0.414171
0.19246 0.461945 0.426213
0.487109 0.700263 0.499092
0.483077 0.697885 0.477165
0.494158 0.675562 0.494837
0.473903 0.671639 0.482056
0.6002 0.794069 0.539081
0.584614 0.80259 0.560912
0.588514 0.837328 0.529576
0.581816 0.809995 0.52379
0.493511 0.36075 0.387536
0.499186 0.370144 0.364353
0.493422 0.345464 0.365476
0.477181 0.359837 0.358691
0.429182 0.726118 0.548701
0.430907 0.735642 0.570319
0.429666 0.749132 0.541158
0.410314 0.752075 0.557798
0.345863 0.485261 0.331193
0.341811 0.499971 0.352082
0.32691 0.507192 0.332208
0.316435 0.481586 0.341492
0.352355 0.274613 0.423317
0.375159 0.274649 0.426997
0.35692 0.259587 0.393548
0.377071 0.271311 0.391568
0.717418 0.411065 0.308944
0.724954 0.433406 0.29553
0.73454 0.41966 0.252944
0.705328 0.431296 0.287999
0.516278 0.447176 0.845608
0.494366 0.439113 0.815064
0.485228 0.458173 0.847178
0.509567 0.479722 0.820588
0.619401 0.756675 0.454328
0.629808 0.738896 0.47708
0.640694 0.771367 0.466327
0.622561 0.761174 0.477101
0.181782 0.441856 0.63363
0.200264 0.386493 0.640621
0.177067 0.413185 0.60333
0.217032 0.420591 0.619184
0.680067 0.529586 0.699948
0.701691 0.54648 0.694685
0.714156 0.529631 0.713229
0.703363 0.517623 0.696951
0.354598 0.600139 0.304974
0.331386 0.588381 0.297286
0.361625 0.573211 0.295672
0.341593 0.570118 0.304799
0.534506 0.525148 0.152614
0.557041 0.525956 0.187266
0.530567 0.556256 0.155906
0.524196 0.536529 0.183716
0.3652 0.46866 0.178524
0.35782 0.474198 0.228353
0.338038 0.441223 0.195347
0.383617 0.46349 0.212327
0.367023 0.551884 0.18043
0.353989 0.549622 0.229518
0.310614 0.534549 0.2077
0.337794 0.517123 0.224936
0.46092 0.804699 0.480286
0.468644 0.792831 0.460376
0.476526 0.814719 0.452914
0.491415 0.811094 0.467512
0.511875 0.840881 0.57848
0.504931 0.849547 0.517105
0.543094 0.845172 0.538723
0.504407 0.808095 0.543003
0.638204 0.638913 0.39082
0.661407 0.641521 0.383513
0.64603 0.633546 0.360236
0.636297 0.665614 0.381999
0.491239 0.17115 0.619502
0.468533 0.197441 0.601021
0.466414 0.18934 0.657677
0.477312 0.208314 0.631851
0.537774 0.544732 0.280167
0.555321 0.52827 0.273377
0.530857 0.515507 0.264433
0.541181 0.535112 0.254831
0.564376 0.450926 0.196345
0.542636 0.470321 0.185136
0.539417 0.444406 0.156699
0.536793 0.445481 0.196953
0.518769 0.215506 0.462153
0.543456 0.224068 0.464381
0.538423 0.219525 0.439984
0.511827 0.237197 0.459192
0.250737 0.435573 0.485106
0.278361 0.433498 0.495416
0.267145 0.455782 0.491024
0.250401 0.445443 0.506255
0.526524 0.252235 0.254218
0.552556 0.277759 0.28263
0.559333 0.276916 0.236917
0.52374 0.284987 0.264942
0.366846 0.254486 0.368796
0.39954 0.238975 0.355005
0.367712 0.226653 0.325985
0.373135 0.250552 0.341019
0.482224 0.294856 0.302458
0.499143 0.301759 0.329864
0.482019 0.315779 0.328662
0.477503 0.295651 0.332533
0.500629 0.239479 0.323237
0.415211 0.315173 0.281341
0.405806 0.298654 0.297741
0.439668 0.295778 0.287407
0.426007 0.301012 0.302233
0.295952 0.620648 0.669899
0.300438 0.644125 0.690169
0.289588 0.651178 0.661625
0.27858 0.629452 0.652833
0.797851 0.412507 0.56846
0.788085 0.412189 0.601547
0.820408 0.400303 0.599496
0.786043 0.432563 0.580507
0.617087 0.290443 0.245291
0.542411 0.313967 0.206584
0.550659 0.334515 0.254003
0.471573 0.458712 0.153608
0.413786 0.470056 0.162109
0.414531 0.431416 0.167598
0.450366 0.447519 0.195218
0.315069 0.709665 0.634926
0.306885 0.674855 0.648635
0.317176 0.727163 0.693579
0.290044 0.695194 0.636731
0.499523 0.341201 0.274211
0.50841 0.351545 0.294259
0.522457 0.337739 0.276284
0.522418 0.361488 0.279913
0.4825 0.817301 0.511167
0.484568 0.79342 0.534909
0.504192 0.793371 0.514107
0.507752 0.819192 0.519124
0.496655 0.555543 0.470006
0.474232 0.558048 0.478904
0.475111 0.539617 0.494645
0.489099 0.554617 0.500294
0.529979 0.714888 0.661578
0.519367 0.723693 0.63857
0.553322 0.728584 0.650449
0.544714 0.705356 0.642281
0.538833 0.296353 0.278791
0.524763 0.31469 0.28261
0.509346 0.295085 0.280983
0.352266 0.515742 0.561151
0.36732 0.491894 0.547374
0.349595 0.482209 0.563096
0.335091 0.495675 0.555277
0.583991 0.160705 0.51801
0.569671 0.158048 0.473267
0.538293 0.152524 0.517153
0.555665 0.188982 0.500654
0.725606 0.36405 0.367066
0.732583 0.390925 0.365119
0.733939 0.385657 0.335469
0.24003 0.394214 0.427945
0.232334 0.378886 0.412888
0.258445 0.388925 0.402365
0.252072 0.371556 0.412427
0.181036 0.52201 0.513451
0.1934 0.5013 0.500292
0.201245 0.5415 0.501251
0.218181 0.52615 0.50943
0.458328 0.715141 0.459199
0.4302 0.713707 0.464768
0.441449 0.721144 0.490113
0.462621 0.725581 0.480163
0.248653 0.479892 0.416123
0.261307 0.460011 0.419301
0.279206 0.473111 0.427872
0.255292 0.474716 0.443427
0.349141 0.382297 0.341714
0.328465 0.398667 0.324846
0.362314 0.37779 0.318469
0.329301 0.374584 0.320722
0.592216 0.463732 0.483506
0.573593 0.469387 0.502493
0.573414 0.444596 0.504044
0.608077 0.46169 0.499522
0.381262 0.503573 0.439115
0.359418 0.480929 0.4369
0.374865 0.464951 0.455852
0.390986 0.494974 0.461605
0.315677 0.445665 0.63018
0.326633 0.425744 0.634863
0.31685 0.411368 0.619487
0.322732 0.435685 0.602551
0.574675 0.775393 0.297312
0.546356 0.734225 0.301258
0.598161 0.755774 0.282184
0.581507 0.741693 0.313105
0.27574 0.441458 0.668242
0.295219 0.454586 0.656161
0.292262 0.47258 0.675271
0.304331 0.445635 0.67594
0.620225 0.801408 0.368853
0.645798 0.807295 0.417462
0.600595 0.819885 0.399729
0.623548 0.779124 0.418467
0.501191 0.576394 0.486632
0.531224 0.602826 0.499136
0.508009 0.609041 0.483071
0.509346 0.602327 0.50455
0.522688 0.340927 0.425308
0.533105 0.316133 0.414658
0.528007 0.321285 0.393714
0.543753 0.344141 0.418675
0.400863 0.533382 0.43673
0.418723 0.546608 0.428864
0.42571 0.555725 0.449452
0.421112 0.521427 0.443292
0.348633 0.644587 0.219496
0.347055 0.592366 0.275497
0.367874 0.614593 0.283161
0.344956 0.610263 0.288043
0.704074 0.636334 0.515433
0.713675 0.611668 0.523899
0.711885 0.644402 0.536117
0.710292 0.622482 0.544523
0.187658 0.346398 0.536726
0.240632 0.318196 0.552389
0.218101 0.299612 0.553641
0.224475 0.341691 0.515511
0.702592 0.56891 0.628476
0.72861 0.573865 0.606091
0.714113 0.550926 0.607627
0.697103 0.581116 0.607355
0.455273 0.235254 0.480553
0.474928 0.24437 0.470103
0.475324 0.214545 0.485362
0.477728 0.212384 0.464754
0.261124 0.329328 0.565148
0.25768 0.330153 0.587759
0.261872 0.302756 0.565234
0.282557 0.320189 0.572997
0.484754 0.532357 0.762515
0.499907 0.502677 0.774448
0.492116 0.509629 0.751671
0.507219 0.521802 0.761087
0.411659 0.788957 0.423332
0.394479 0.782107 0.396279
0.41176 0.822621 0.3969
0.418519 0.787047 0.39961
0.675522 0.581987 0.516732
0.673812 0.568015 0.48554
0.686862 0.588957 0.492897
0.702087 0.575455 0.5011
0.282982 0.514666 0.774204
0.320524 0.560034 0.794422
0.335543 0.526705 0.8078
0.331655 0.516026 0.757637
0.350778 0.636263 0.406635
0.339184 0.651836 0.428843
0.325477 0.646019 0.410518
0.330961 0.625503 0.417509
0.523963 0.527381 0.294866
0.506646 0.537449 0.288466
0.509109 0.535561 0.315368
0.528369 0.552796 0.309355
0.655293 0.447083 0.190834
0.699002 0.428747 0.221035
0.707995 0.464434 0.220763
0.669503 0.332977 0.384465
0.682526 0.332393 0.365491
0.693118 0.330542 0.392467
0.698728 0.311621 0.373429
0.572809 0.728479 0.619362
0.592213 0.753083 0.629326
0.574211 0.764919 0.626977
0.578909 0.736294 0.641004
0.451082 0.505281 0.62492
0.436478 0.520063 0.640837
0.463384 0.510379 0.657397
0.461172 0.525539 0.636886
0.589426 0.678129 0.627724
0.610055 0.666189 0.65692
0.588492 0.652252 0.65119
0.604158 0.660119 0.625064
0.699452 0.413628 0.673548
0.688801 0.423045 0.651872
0.703421 0.443867 0.656836
0.720811 0.421797 0.665209
0.55976 0.377822 0.729274
0.550823 0.386441 0.707571
0.53894 0.364648 0.728679
0.539419 0.386472 0.726332
0.314774 0.512505 0.493323
0.296707 0.52486 0.502624
0.292482 0.486606 0.492311
0.303939 0.502633 0.515367
0.36712 0.452851 0.488115
0.356828 0.442943 0.504585
0.367712 0.474494 0.495898
0.348871 0.464239 0.503505
0.577133 0.414815 0.550815
0.601745 0.424062 0.54465
0.597563 0.420184 0.571046
0.590208 0.400778 0.562479
0.71634 0.32976 0.464585
0.710412 0.363518 0.446666
0.734822 0.36323 0.450042
0.740701 0.340018 0.444491
0.46597 0.594231 0.394124
0.460865 0.57095 0.391918
0.484688 0.568746 0.392688
0.488046 0.590101 0.406323
0.812804 0.538421 0.459568
0.814068 0.561382 0.481329
0.835405 0.587332 0.451252
0.798404 0.559075 0.461642
0.162515 0.557381 0.572877
0.158096 0.50944 0.574247
0.154414 0.544888 0.532489
0.184429 0.5322 0.547828
0.458433 0.776283 0.47686
0.438662 0.789674 0.492833
0.443868 0.79281 0.470813
0.422571 0.402265 0.77267
0.431863 0.373916 0.746859
0.406226 0.390558 0.748289
0.428231 0.409979 0.752073
0.394376 0.690275 0.491853
0.381479 0.694944 0.476506
0.370835 0.711972 0.484991
0.399086 0.709738 0.480626
0.457303 0.58537 0.836733
0.484326 0.578277 0.807183
0.469622 0.540953 0.813853
0.450932 0.569211 0.806803
0.633478 0.276364 0.733818
0.572551 0.279647 0.76207
0.593628 0.305558 0.775547
0.575972 0.311843 0.742947
0.614266 0.275165 0.631085
0.615375 0.254585 0.631452
0.615981 0.248379 0.611804
0.636292 0.262577 0.623794
0.537563 0.561282 0.550865
0.515574 0.56112 0.524909
0.546433 0.55605 0.525069
0.532005 0.540749 0.538165
0.468877 0.756042 0.565895
0.443213 0.74659 0.587341
0.439469 0.764273 0.557329
0.450669 0.744525 0.55862
0.480457 0.468968 0.259745
0.469226 0.490528 0.271358
0.45507 0.463752 0.267598
0.481355 0.473997 0.282103
0.250788 0.528281 0.545747
0.25217 0.56547 0.527144
0.270574 0.552458 0.535293
0.22999 0.543002 0.529516
0.652838 0.663055 0.682636
0.662295 0.643681 0.66731
0.660315 0.668978 0.655849
0.676831 0.65773 0.682095
0.739881 0.455915 0.298048
0.731073 0.471034 0.320265
0.761415 0.464096 0.317856
0.73442 0.476759 0.299698
0.611946 0.296477 0.326951
0.645411 0.312406 0.319265
0.620658 0.320265 0.321816
0.628677 0.306222 0.335425
0.714033 0.339296 0.543839
0.687552 0.343483 0.540663
0.698025 0.335256 0.562743
0.694635 0.367408 0.561189
0.440169 0.302229 0.452418
0.463595 0.290996 0.460595
0.442762 0.28045 0.481186
0.427448 0.281345 0.460499
0.540019 0.778201 0.381424
0.533319 0.781202 0.351565
0.505761 0.788883 0.362834
0.51881 0.799159 0.388622
0.737056 0.260669 0.404999
0.712255 0.282084 0.408044
0.69763 0.268135 0.434015
0.709833 0.295121 0.438417
0.471407 0.252715 0.253967
0.457893 0.293217 0.266097
0.445338 0.273047 0.291358
0.383599 0.736293 0.461073
0.388897 0.724895 0.494537
0.37637 0.744175 0.487074
0.369262 0.729576 0.474323
0.243542 0.451131 0.432378
0.22941 0.464105 0.416514
0.391532 0.669549 0.266408
0.377949 0.671318 0.287687
0.391793 0.650135 0.287619
0.398949 0.671771 0.292401
0.544868 0.362043 0.695076
0.550871 0.346851 0.714738
0.545519 0.331722 0.685067
0.566758 0.350208 0.681402
0.627895 0.188348 0.594951
0.581285 0.176988 0.607498
0.598046 0.195488 0.641983
0.595642 0.221345 0.603002
0.45854 0.365054 0.708715
0.45418 0.351318 0.723277
0.448187 0.345347 0.699051
0.472165 0.351205 0.702184
0.626014 0.542815 0.457431
0.603332 0.562882 0.448514
0.606869 0.557991 0.471165
0.630433 0.56966 0.462523
0.556225 0.449623 0.2229
0.555907 0.43791 0.250086
0.529567 0.463573 0.236781
0.534588 0.450182 0.220334
0.599711 0.803724 0.46844
0.5762 0.788106 0.461075
0.600606 0.774192 0.468927
0.58714 0.79257 0.48571
0.211253 0.444795 0.416925
0.216586 0.471818 0.401461
0.556641 0.753243 0.442682
0.572445 0.77046 0.447009
0.589448 0.755189 0.445981
0.573693 0.743562 0.427604
0.723958 0.433145 0.645053
0.746054 0.430782 0.646164
0.734884 0.440276 0.667533
0.616663 0.536719 0.23308
0.6089 0.56463 0.222314
0.586458 0.547895 0.235409
0.599852 0.543346 0.252175
0.345835 0.711677 0.67763
0.355798 0.686521 0.67267
0.336308 0.683914 0.65762
0.359291 0.6961 0.645937
0.460466 0.406108 0.685786
0.453801 0.39563 0.716349
0.444507 0.38142 0.697573
0.475661 0.391201 0.695169
0.424664 0.626935 0.244905
0.394935 0.632556 0.265081
0.401698 0.607211 0.238742
0.638407 0.422277 0.626445
0.658452 0.443171 0.614768
0.646053 0.453771 0.64325
0.655308 0.430746 0.642538
0.663762 0.665393 0.388329
0.650134 0.656714 0.403685
0.226262 0.449488 0.608619
0.23934 0.420621 0.629117
0.251567 0.441629 0.626778
0.235941 0.450325 0.642382
0.275883 0.624634 0.400036
0.275308 0.646068 0.406713
0.303706 0.628822 0.404232
0.292765 0.630556 0.384517
0.69632 0.343371 0.448354
0.711573 0.359208 0.470903
0.693052 0.341456 0.473904
0.849999 0.5 0.500795
0.846671 0.46136 0.471252
0.845327 0.444347 0.512319
0.814314 0.473468 0.499289
0.304245 0.714098 0.468976
0.285095 0.699904 0.483351
0.300635 0.683793 0.466806
0.308079 0.697102 0.484253
0.38764 0.48866 0.657748
0.377626 0.489364 0.681301
0.402762 0.48512 0.680714
0.408541 0.506107 0.671288
0.406278 0.561374 0.362378
0.419262 0.585799 0.358247
0.387162 0.5758 0.351982
0.402774 0.581138 0.375495
0.82748 0.582816 0.408358
0.816463 0.626061 0.419629
0.792754 0.581831 0.436347
0.544483 0.343493 0.623984
0.526201 0.337471 0.636156
0.544052 0.313339 0.634158
0.551984 0.34021 0.651486
0.491709 0.227861 0.465157
0.490092 0.211931 0.438323
0.512257 0.228744 0.437842
0.664509 0.566407 0.349817
0.651975 0.551284 0.366273
0.677363 0.548407 0.368214
0.66909 0.572066 0.374647
0.512451 0.156784 0.567438
0.526575 0.209442 0.564948
0.550719 0.206045 0.582733
0.547818 0.188512 0.557717
0.7093 0.76086 0.603176
0.666669 0.748223 0.586413
0.69354 0.783338 0.569006
0.682095 0.734874 0.566353
0.463398 0.83489 0.594914
0.4766 0.789157 0.622662
0.48828 0.825181 0.628919
0.445813 0.798089 0.600769
0.683239 0.716689 0.704865
0.665864 0.710105 0.66882
0.632823 0.696037 0.680707
0.636112 0.729774 0.674677
0.449597 0.169273 0.397144
0.466546 0.210109 0.383769
0.442386 0.188721 0.350716
0.451415 0.197015 0.404381
0.529701 0.648585 0.379978
0.546165 0.655826 0.388918
0.561767 0.644794 0.365466
0.540879 0.661479 0.371512
0.528875 0.676797 0.762215
0.565948 0.666564 0.759443
0.561075 0.69673 0.782961
0.543271 0.6559 0.763713
0.51391 0.681381 0.380705
0.534065 0.686607 0.38968
0.498422 0.69563 0.389031
0.451953 0.412983 0.296218
0.48009 0.413642 0.311449
0.483971 0.42231 0.291261
0.474076 0.438395 0.300693
0.795246 0.61065 0.526601
0.784327 0.58946 0.548771
0.770812 0.606386 0.541394
0.785171 0.588587 0.522109
0.748737 0.615805 0.354837
0.744105 0.581104 0.343937
0.780073 0.610278 0.321401
0.751991 0.592523 0.365905
0.833417 0.394751 0.516002
0.809351 0.4156 0.533023
0.80275 0.427255 0.499495
0.802956 0.397033 0.508343
0.60654 0.5 0.83339
0.592891 0.500627 0.80819
0.580043 0.47644 0.799728
0.187946 0.497076 0.341528
0.230697 0.495464 0.361863
0.216343 0.520618 0.366192
0.198075 0.488716 0.380231
0.582765 0.4197 0.711559
0.576555 0.442366 0.69241
0.603083 0.417527 0.706068
0.58972 0.412165 0.690733
0.2377 0.565146 0.546247
0.222728 0.587616 0.527668
0.241825 0.589249 0.543163
0.463879 0.447203 0.760395
0.473121 0.432814 0.740244
0.485408 0.449067 0.767193
0.478253 0.423809 0.761248
0.351092 0.318943 0.70014
0.372164 0.332651 0.710112
0.362829 0.307303 0.757977
0.376338 0.310771 0.691304
0.643108 0.187039 0.436163
0.634707 0.226914 0.39823
0.614624 0.212336 0.443162
0.648423 0.234064 0.417047
0.342878 0.364634 0.781937
0.414471 0.343263 0.801029
0.327889 0.338551 0.75848
0.371608 0.352762 0.728186
0.518478 0.731977 0.45846
0.510038 0.727021 0.484165
0.531394 0.719683 0.472104
0.5276 0.745178 0.475663
0.550273 0.343631 0.592688
0.557477 0.31089 0.592159
0.573704 0.330958 0.586994
0.554834 0.330191 0.609657
0.359867 0.562699 0.316909
0.377698 0.549922 0.307775
0.378681 0.570839 0.307589
0.362406 0.369063 0.59176
0.378233 0.380758 0.607708
0.389861 0.3612 0.59658
0.381472 0.376528 0.582354
0.446976 0.254522 0.679241
0.441368 0.277537 0.691996
0.458101 0.284834 0.671781
0.446633 0.270297 0.659503
0.510418 0.647926 0.323878
0.485372 0.656097 0.342921
0.491454 0.633471 0.347571
0.500731 0.649781 0.360012
0.590568 0.426028 0.674936
0.617848 0.427224 0.672603
0.546501 0.184357 0.356101
0.570305 0.173441 0.395519
0.603781 0.188066 0.379889
0.565768 0.225895 0.384376
0.445915 0.478437 0.812012
0.427951 0.451109 0.808759
0.428751 0.460149 0.840346
0.431296 0.469858 0.798803
0.432306 0.407009 0.692095
0.426415 0.396725 0.669869
0.403519 0.404785 0.691979
0.408045 0.4239 0.677063
0.336752 0.665355 0.325629
0.351707 0.68766 0.316565
0.35924 0.670169 0.334336
0.351198 0.666685 0.308421
0.349219 0.415796 0.254207
0.357401 0.438462 0.258586
0.334015 0.438002 0.26585
0.344203 0.418918 0.278628
0.270423 0.47908 0.487651
0.296051 0.490178 0.468462
0.296577 0.46656 0.485084
0.4364 0.555301 0.485734
0.427965 0.534911 0.464628
0.40689 0.540032 0.471501
0.417769 0.561718 0.471581
0.784006 0.363868 0.556568
0.755364 0.369184 0.587227
0.756493 0.358846 0.560493
0.75728 0.346783 0.591978
0.163757 0.423786 0.560264
0.194511 0.410968 0.538025
0.154209 0.446786 0.509858
0.18614 0.457252 0.525391
0.492824 0.304962 0.266983
0.499008 0.274413 0.286667
0.2162 0.462067 0.63641
0.663101 0.579881 0.689171
0.661666 0.589945 0.713499
0.665266 0.564463 0.719237
0.683209 0.580699 0.698212
0.264066 0.558771 0.657406
0.23384 0.544015 0.642725
0.233876 0.56703 0.6512
0.257943 0.560641 0.629042
0.65074 0.64257 0.420903
0.643514 0.621555 0.405595
0.642104 0.611462 0.426666
0.630924 0.643514 0.41117
0.351927 0.682874 0.697509
0.565153 0.532736 0.243803
0.586433 0.539257 0.274686
0.595174 0.522491 0.25711
0.555688 0.740506 0.468047
0.554365 0.725088 0.439748
0.541083 0.730212 0.455958
0.214228 0.303136 0.454405
0.232793 0.328791 0.48216
0.22999 0.277394 0.50643
0.251629 0.307792 0.49479
0.613487 0.533151 0.779461
0.594294 0.525954 0.784511
0.58158 0.542058 0.779538
0.608917 0.54414 0.760799
0.614244 0.477186 0.263335
0.626943 0.457441 0.252029
0.637066 0.478743 0.240952
0.635918 0.481547 0.262857
0.729325 0.606358 0.331489
0.724726 0.596576 0.358084
0.277142 0.631256 0.568742
0.290574 0.636397 0.591255
0.300712 0.603315 0.585545
0.310051 0.61442 0.567729
0.632323 0.502545 0.319229
0.613672 0.491467 0.330695
0.595788 0.518191 0.32688
0.610683 0.502817 0.313024
0.242939 0.727974 0.43331
0.2727 0.716972 0.439242
0.26461 0.707872 0.466271
0.255694 0.694032 0.445715
0.350639 0.752036 0.476415
0.321743 0.746451 0.492202
0.343106 0.723476 0.498059
0.356361 0.745252 0.496884
0.546935 0.416562 0.362279
0.536402 0.431177 0.37612
0.551045 0.409872 0.392695
0.562619 0.416589 0.376387
0.357261 0.738778 0.451558
0.379589 0.749594 0.430098
0.348152 0.757408 0.444394
0.364935 0.761082 0.460264
0.344822 0.37167 0.687535
0.333264 0.380423 0.66668
0.343169 0.359302 0.656632
0.330113 0.355094 0.672712
0.804939 0.56055 0.437283
0.581449 0.559605 0.459473
0.565498 0.531821 0.445845
0.560257 0.534315 0.466302
0.563702 0.557134 0.446827
0.609098 0.259795 0.415694
0.585786 0.232092 0.416094
0.570963 0.259801 0.410831
0.603163 0.247782 0.397735
0.640017 0.747248 0.420022
0.660539 0.751605 0.39029
0.670693 0.757541 0.426309
0.662302 0.734118 0.419193
0.726994 0.327397 0.591715
0.708382 0.334232 0.582145
0.704895 0.312907 0.58637
0.705306 0.337877 0.613647
0.428161 0.321144 0.207853
0.365145 0.339882 0.219507
0.35253 0.309989 0.245739
0.379606 0.348295 0.26923
0.746462 0.45692 0.66843
0.758334 0.450726 0.683679
0.543595 0.668438 0.655986
0.520033 0.669534 0.688506
0.512095 0.660806 0.665108
0.523726 0.642499 0.676152
0.501791 0.26466 0.651143
0.489436 0.256126 0.625236
0.507865 0.2466 0.63316
0.48656 0.249811 0.651265
0.230188 0.57244 0.461259
0.240039 0.586709 0.485078
0.237328 0.603577 0.469086
0.218287 0.593704 0.456624
0.43931 0.722417 0.236661
0.448274 0.720988 0.284403
0.389029 0.734568 0.265131
0.443284 0.701587 0.260025
0.665762 0.760042 0.458804
0.686516 0.750005 0.455441
0.683387 0.762497 0.48281
0.679002 0.740287 0.479689
0.377015 0.558738 0.424465
0.360105 0.574404 0.419572
0.349464 0.567058 0.439273
0.378055 0.576138 0.440409
0.243953 0.378192 0.473106
0.216382 0.379756 0.495396
0.220715 0.371486 0.468116
0.232602 0.366816 0.505082
0.603909 0.505525 0.343227
0.560563 0.5 0.15528
0.5 0.5 0.15
0.522468 0.501911 0.185043
0.78603 0.663509 0.381882
0.738128 0.657075 0.372576
0.767189 0.65251 0.333115
0.763278 0.63101 0.3913
0.715072 0.381186 0.749253
0.750033 0.424503 0.732988
0.759459 0.3955 0.710383
0.717147 0.412001 0.703442
0.391602 0.260009 0.366901
0.367341 0.269294 0.354105
0.351416 0.738319 0.533373
0.371599 0.757581 0.535253
0.372372 0.72122 0.547894
0.386376 0.732642 0.535419
0.193541 0.497751 0.5426
0.19518 0.507772 0.522885
0.216893 0.482061 0.53205
0.192472 0.478812 0.52963
0.434686 0.552257 0.160142
0.463968 0.522804 0.152607
0.490976 0.549879 0.15369
0.448589 0.536692 0.180103
0.545859 0.748037 0.490216
0.565287 0.736815 0.496771
0.564456 0.76481 0.494421
0.559417 0.75176 0.508823
0.332063 0.706936 0.72688
0.379504 0.718968 0.6863
0.379037 0.732225 0.732249
0.752082 0.358417 0.503605
0.770145 0.360563 0.486313
0.76922 0.335759 0.482603
0.745879 0.361924 0.483501
0.303191 0.605224 0.38905
0.321861 0.607295 0.408261
0.297483 0.607897 0.411629
0.552783 0.682258 0.249999
0.56129 0.699548 0.271171
0.526562 0.692177 0.262617
0.539437 0.672196 0.267626
0.462579 0.228681 0.662794
0.469158 0.256928 0.661218
0.479586 0.24134 0.685085
0.723159 0.487735 0.481268
0.694539 0.486293 0.482766
0.710965 0.499341 0.460205
0.726444 0.475657 0.463381
0.224511 0.56159 0.381144
0.22793 0.590545 0.385228
0.256019 0.583851 0.390967
0.249972 0.587634 0.364924
0.59367 0.787094 0.676927
0.607198 0.757155 0.711848
0.569568 0.769488 0.712218
0.582122 0.745224 0.678419
0.307158 0.383952 0.649984
0.310283 0.393809 0.679277
0.309684 0.368767 0.66353
0.489022 0.383342 0.740697
0.520346 0.389684 0.736722
0.499719 0.413497 0.730037
0.486006 0.404623 0.744522
0.76728 0.5 0.725967
0.714592 0.536907 0.739574
0.771797 0.541805 0.716515
0.447811 0.402504 0.268711
0.440636 0.38252 0.254349
0.474875 0.386188 0.26709
0.36901 0.289845 0.443272
0.35546 0.320343 0.431374
0.375861 0.302057 0.416457
0.349871 0.299151 0.427861
0.54441 0.471571 0.153995
0.551098 0.497949 0.182619
0.559127 0.481523 0.196424
0.330309 0.732904 0.301353
0.31256 0.705383 0.287435
0.38032 0.70811 0.24531
0.371038 0.692448 0.299776
0.683916 0.26826 0.487409
0.697148 0.258977 0.468975
0.675869 0.276614 0.464646
0.699341 0.291588 0.475087
0.419725 0.760063 0.279948
0.474497 0.7447 0.251059
0.716755 0.668686 0.342978
0.552094 0.513619 0.253379
0.577965 0.518029 0.276089
0.562291 0.808473 0.544812
0.572191 0.804158 0.586118
0.563956 0.835427 0.576798
0.554551 0.793549 0.567173
0.685327 0.786974 0.423841
0.428469 0.566085 0.780666
0.446747 0.55681 0.788974
0.46109 0.566833 0.775448
0.445852 0.580993 0.786851
0.721546 0.492372 0.280521
0.715789 0.513067 0.302057
0.718067 0.490437 0.304325
0.735232 0.502251 0.307487
0.74872 0.696833 0.512422
0.763437 0.670521 0.480696
0.790984 0.694127 0.511969
0.760126 0.675078 0.522685
0.23208 0.423074 0.479051
0.202325 0.424955 0.463048
0.224403 0.429926 0.452196
0.219947 0.41281 0.46463
0.555908 0.312291 0.463417
0.544053 0.27999 0.485628
0.566437 0.278001 0.476137
0.551724 0.313794 0.485742
0.453252 0.336196 0.640713
0.434025 0.339017 0.656747
0.439738 0.31361 0.648424
0.458371 0.315865 0.659746
0.581428 0.399901 0.532037
0.580794 0.423246 0.5251
0.60479 0.404666 0.522857
0.355982 0.181482 0.517473
0.347131 0.223856 0.50306
0.309415 0.207319 0.522697
0.332637 0.229919 0.53333
0.742109 0.72836 0.608328
0.736263 0.68808 0.594835
0.762313 0.692773 0.628571
0.709603 0.705985 0.621069
0.429154 0.44491 0.410063
0.447819 0.418834 0.391169
0.454624 0.434301 0.423072
0.432137 0.425022 0.422314
0.778205 0.460511 0.34493
0.759318 0.486689 0.359944
0.762114 0.461997 0.366564
0.778102 0.489587 0.362311
0.504914 0.71136 0.268324
0.472295 0.713703 0.262699
0.492954 0.711882 0.221511
0.491082 0.695614 0.246745
0.433798 0.555961 0.719167
0.440401 0.587327 0.74075
0.450671 0.582533 0.712997
0.426634 0.578021 0.711202
0.735027 0.445432 0.363374
0.733485 0.451354 0.340743
0.74557 0.421754 0.338057
0.718265 0.424738 0.334987
0.276594 0.341993 0.582668
0.295944 0.337782 0.562239
0.283898 0.360036 0.566055
0.387885 0.373654 0.465816
0.394473 0.385524 0.490467
0.412333 0.392517 0.475338
0.388864 0.397768 0.463593
0.370435 0.713313 0.653641
0.344626 0.71933 0.652248
0.362166 0.715104 0.630634
0.26179 0.589597 0.583397
0.25417 0.569966 0.599535
0.277355 0.556346 0.57272
0.276918 0.55323 0.594113
0.474428 0.600852 0.694178
0.454856 0.592355 0.682471
0.470993 0.617811 0.678825
0.482303 0.59145 0.672661
0.499499 0.571033 0.301129
0.516811 0.5558 0.289929
0.488564 0.54924 0.308764
0.432896 0.511183 0.815879
0.435987 0.492749 0.791795
0.443219 0.52757 0.798765
0.459513 0.516004 0.801818
0.356659 0.699245 0.612672
0.379328 0.683383 0.625265
0.620802 0.800907 0.631765
0.641361 0.774602 0.664654
0.605654 0.762206 0.64367
0.539358 0.70999 0.596544
0.543291 0.72103 0.575066
0.554924 0.699605 0.577147
0.53169 0.703821 0.571899
0.778398 0.692808 0.588428
0.726244 0.703856 0.573317
0.770701 0.714093 0.558183
0.750594 0.68066 0.573073
0.657258 0.717277 0.399975
0.635321 0.738787 0.393273
0.610757 0.716914 0.467287
0.610093 0.7088 0.440457
0.639872 0.698881 0.459387
0.619404 0.689824 0.451354
0.655912 0.405097 0.63078
0.674713 0.421423 0.630173
0.289068 0.37246 0.251522
0.371209 0.398 0.246494
0.3607 0.370154 0.206341
0.671132 0.732793 0.393433
0.679763 0.706279 0.414473
0.68821 0.717997 0.393492
0.601613 0.509495 0.7256
0.608601 0.503581 0.693251
0.581371 0.485752 0.701674
0.584754 0.513285 0.703796
0.53341 0.23538 0.619122
0.528266 0.239747 0.641015
0.550224 0.246368 0.641593
0.539488 0.262988 0.628905
0.654831 0.685943 0.567662
0.680661 0.682953 0.570519
0.64944 0.681188 0.594662
0.668237 0.670317 0.601556
0.487655 0.550346 0.743638
0.462824 0.571102 0.727634
0.47778 0.581104 0.74063
0.497718 0.570155 0.738189
0.638791 0.240444 0.310613
0.698066 0.251486 0.353335
0.662593 0.266713 0.295939
0.66244 0.285061 0.342581
0.522566 0.377919 0.550605
0.526008 0.408833 0.554829
0.543659 0.392273 0.566604
0.538176 0.381453 0.534999
0.688665 0.607914 0.654338
0.682564 0.631188 0.645065
0.70647 0.630106 0.635459
0.679569 0.611051 0.624616
0.781888 0.454497 0.702407
0.796181 0.5 0.686485
0.814033 0.460721 0.649467
0.764924 0.480236 0.681339
0.319163 0.427251 0.331312
0.299595 0.423704 0.342995
0.300225 0.404176 0.330739
0.332872 0.41352 0.33863
0.2421 0.430726 0.606841
0.246023 0.450889 0.599438
0.279449 0.440423 0.602118
0.253265 0.429823 0.589037
0.34876 0.466857 0.722808
0.320243 0.458837 0.746479
0.321503 0.454228 0.719193
0.342294 0.442618 0.729614
0.244722 0.415957 0.333743
0.251394 0.439936 0.335902